<?xml version="1.0" encoding="UTF-8"?>

<!-- generated on 2025-02-23 22:41:39 by Eclipse SUMO sumo Version 1.22.0
<sumoConfiguration xmlns:xsi="http://www.w3.org/2001/XMLSchema-instance" xsi:noNamespaceSchemaLocation="http://sumo.dlr.de/xsd/sumoConfiguration.xsd">

    <input>
        <net-file value="our_project.net.xml"/>
        <route-files value="test.rou.xml"/>
    </input>

    <output>
        <summary-output value="true"/>
    </output>

</sumoConfiguration>
-->

<summary xmlns:xsi="http://www.w3.org/2001/XMLSchema-instance" xsi:noNamespaceSchemaLocation="http://sumo.dlr.de/xsd/summary_file.xsd">
    <step time="0.00" loaded="10" inserted="4" running="4" waiting="6" ended="0" arrived="0" collisions="0" teleports="0" halting="4" stopped="0" meanWaitingTime="0.00" meanTravelTime="-1.00" meanSpeed="0.00" meanSpeedRelative="0.00" duration="2"/>
    <step time="1.00" loaded="10" inserted="4" running="4" waiting="6" ended="0" arrived="0" collisions="0" teleports="0" halting="0" stopped="0" meanWaitingTime="0.00" meanTravelTime="-1.00" meanSpeed="1.94" meanSpeedRelative="0.14" duration="1"/>
    <step time="2.00" loaded="10" inserted="4" running="4" waiting="6" ended="0" arrived="0" collisions="0" teleports="0" halting="0" stopped="0" meanWaitingTime="0.00" meanTravelTime="-1.00" meanSpeed="3.88" meanSpeedRelative="0.28" duration="0"/>
    <step time="3.00" loaded="11" inserted="8" running="8" waiting="3" ended="0" arrived="0" collisions="0" teleports="0" halting="4" stopped="0" meanWaitingTime="1.50" meanTravelTime="-1.00" meanSpeed="2.78" meanSpeedRelative="0.20" duration="0"/>
    <step time="4.00" loaded="12" inserted="8" running="8" waiting="4" ended="0" arrived="0" collisions="0" teleports="0" halting="0" stopped="0" meanWaitingTime="1.50" meanTravelTime="-1.00" meanSpeed="4.54" meanSpeedRelative="0.33" duration="0"/>
    <step time="5.00" loaded="13" inserted="9" running="9" waiting="4" ended="0" arrived="0" collisions="0" teleports="0" halting="1" stopped="0" meanWaitingTime="1.89" meanTravelTime="-1.00" meanSpeed="5.91" meanSpeedRelative="0.43" duration="0"/>
    <step time="6.00" loaded="13" inserted="11" running="11" waiting="2" ended="0" arrived="0" collisions="0" teleports="0" halting="2" stopped="0" meanWaitingTime="2.45" meanTravelTime="-1.00" meanSpeed="6.43" meanSpeedRelative="0.46" duration="1"/>
    <step time="7.00" loaded="14" inserted="12" running="12" waiting="2" ended="0" arrived="0" collisions="0" teleports="0" halting="1" stopped="0" meanWaitingTime="2.50" meanTravelTime="-1.00" meanSpeed="7.51" meanSpeedRelative="0.54" duration="0"/>
    <step time="8.00" loaded="15" inserted="13" running="13" waiting="2" ended="0" arrived="0" collisions="0" teleports="0" halting="1" stopped="0" meanWaitingTime="2.62" meanTravelTime="-1.00" meanSpeed="7.99" meanSpeedRelative="0.57" duration="0"/>
    <step time="9.00" loaded="17" inserted="15" running="15" waiting="2" ended="0" arrived="0" collisions="0" teleports="0" halting="2" stopped="0" meanWaitingTime="2.40" meanTravelTime="-1.00" meanSpeed="8.03" meanSpeedRelative="0.58" duration="0"/>
    <step time="10.00" loaded="19" inserted="17" running="17" waiting="2" ended="0" arrived="0" collisions="0" teleports="0" halting="2" stopped="0" meanWaitingTime="2.35" meanTravelTime="-1.00" meanSpeed="7.75" meanSpeedRelative="0.56" duration="1"/>
    <step time="11.00" loaded="19" inserted="17" running="17" waiting="2" ended="0" arrived="0" collisions="0" teleports="0" halting="0" stopped="0" meanWaitingTime="2.35" meanTravelTime="-1.00" meanSpeed="8.00" meanSpeedRelative="0.58" duration="0"/>
    <step time="12.00" loaded="22" inserted="19" running="19" waiting="3" ended="0" arrived="0" collisions="0" teleports="0" halting="2" stopped="0" meanWaitingTime="2.26" meanTravelTime="-1.00" meanSpeed="7.39" meanSpeedRelative="0.53" duration="1"/>
    <step time="13.00" loaded="22" inserted="20" running="20" waiting="2" ended="0" arrived="0" collisions="0" teleports="0" halting="1" stopped="0" meanWaitingTime="2.30" meanTravelTime="-1.00" meanSpeed="7.47" meanSpeedRelative="0.54" duration="0"/>
    <step time="14.00" loaded="23" inserted="22" running="22" waiting="1" ended="0" arrived="0" collisions="0" teleports="0" halting="2" stopped="0" meanWaitingTime="2.32" meanTravelTime="-1.00" meanSpeed="7.38" meanSpeedRelative="0.53" duration="1"/>
    <step time="15.00" loaded="24" inserted="23" running="23" waiting="1" ended="0" arrived="0" collisions="0" teleports="0" halting="2" stopped="0" meanWaitingTime="2.22" meanTravelTime="-1.00" meanSpeed="8.01" meanSpeedRelative="0.58" duration="0"/>
    <step time="16.00" loaded="26" inserted="25" running="25" waiting="1" ended="0" arrived="0" collisions="0" teleports="0" halting="4" stopped="0" meanWaitingTime="2.16" meanTravelTime="-1.00" meanSpeed="8.14" meanSpeedRelative="0.59" duration="2"/>
    <step time="17.00" loaded="26" inserted="25" running="25" waiting="1" ended="0" arrived="0" collisions="0" teleports="0" halting="2" stopped="0" meanWaitingTime="2.16" meanTravelTime="-1.00" meanSpeed="8.58" meanSpeedRelative="0.62" duration="0"/>
    <step time="18.00" loaded="28" inserted="27" running="27" waiting="1" ended="0" arrived="0" collisions="0" teleports="0" halting="4" stopped="0" meanWaitingTime="2.15" meanTravelTime="-1.00" meanSpeed="8.26" meanSpeedRelative="0.59" duration="1"/>
    <step time="19.00" loaded="28" inserted="27" running="27" waiting="1" ended="0" arrived="0" collisions="0" teleports="0" halting="2" stopped="0" meanWaitingTime="2.15" meanTravelTime="-1.00" meanSpeed="8.43" meanSpeedRelative="0.61" duration="1"/>
    <step time="20.00" loaded="31" inserted="29" running="28" waiting="2" ended="1" arrived="1" collisions="0" teleports="0" halting="5" stopped="0" meanWaitingTime="2.07" meanTravelTime="20.00" meanSpeed="7.57" meanSpeedRelative="0.55" duration="0"/>
    <step time="21.00" loaded="32" inserted="29" running="28" waiting="3" ended="1" arrived="1" collisions="0" teleports="0" halting="6" stopped="0" meanWaitingTime="2.07" meanTravelTime="20.00" meanSpeed="7.94" meanSpeedRelative="0.57" duration="1"/>
    <step time="22.00" loaded="32" inserted="30" running="29" waiting="2" ended="1" arrived="1" collisions="0" teleports="0" halting="7" stopped="0" meanWaitingTime="2.07" meanTravelTime="20.00" meanSpeed="7.99" meanSpeedRelative="0.58" duration="0"/>
    <step time="23.00" loaded="33" inserted="31" running="29" waiting="2" ended="2" arrived="2" collisions="0" teleports="0" halting="7" stopped="0" meanWaitingTime="2.10" meanTravelTime="21.50" meanSpeed="7.72" meanSpeedRelative="0.56" duration="0"/>
    <step time="24.00" loaded="35" inserted="33" running="31" waiting="2" ended="2" arrived="2" collisions="0" teleports="0" halting="8" stopped="0" meanWaitingTime="2.09" meanTravelTime="21.50" meanSpeed="7.25" meanSpeedRelative="0.52" duration="0"/>
    <step time="25.00" loaded="36" inserted="34" running="32" waiting="2" ended="2" arrived="2" collisions="0" teleports="0" halting="8" stopped="0" meanWaitingTime="2.12" meanTravelTime="21.50" meanSpeed="7.16" meanSpeedRelative="0.52" duration="1"/>
    <step time="26.00" loaded="37" inserted="36" running="33" waiting="1" ended="3" arrived="3" collisions="0" teleports="0" halting="9" stopped="0" meanWaitingTime="2.08" meanTravelTime="22.00" meanSpeed="6.44" meanSpeedRelative="0.46" duration="0"/>
    <step time="27.00" loaded="38" inserted="37" running="34" waiting="1" ended="3" arrived="3" collisions="0" teleports="0" halting="9" stopped="0" meanWaitingTime="2.11" meanTravelTime="22.00" meanSpeed="6.57" meanSpeedRelative="0.47" duration="1"/>
    <step time="28.00" loaded="39" inserted="38" running="35" waiting="1" ended="3" arrived="3" collisions="0" teleports="0" halting="10" stopped="0" meanWaitingTime="2.05" meanTravelTime="22.00" meanSpeed="6.53" meanSpeedRelative="0.47" duration="0"/>
    <step time="29.00" loaded="39" inserted="38" running="34" waiting="1" ended="4" arrived="4" collisions="0" teleports="0" halting="10" stopped="0" meanWaitingTime="2.05" meanTravelTime="23.00" meanSpeed="6.84" meanSpeedRelative="0.49" duration="0"/>
    <step time="30.00" loaded="46" inserted="41" running="37" waiting="5" ended="4" arrived="4" collisions="0" teleports="0" halting="13" stopped="0" meanWaitingTime="1.98" meanTravelTime="23.00" meanSpeed="6.51" meanSpeedRelative="0.47" duration="2"/>
    <step time="31.00" loaded="46" inserted="42" running="35" waiting="4" ended="7" arrived="7" collisions="0" teleports="0" halting="11" stopped="0" meanWaitingTime="1.95" meanTravelTime="23.14" meanSpeed="6.08" meanSpeedRelative="0.44" duration="0"/>
    <step time="32.00" loaded="48" inserted="43" running="35" waiting="5" ended="8" arrived="8" collisions="0" teleports="0" halting="12" stopped="0" meanWaitingTime="1.95" meanTravelTime="23.25" meanSpeed="6.21" meanSpeedRelative="0.45" duration="1"/>
    <step time="33.00" loaded="48" inserted="44" running="36" waiting="4" ended="8" arrived="8" collisions="0" teleports="0" halting="12" stopped="0" meanWaitingTime="1.98" meanTravelTime="23.25" meanSpeed="6.47" meanSpeedRelative="0.47" duration="0"/>
    <step time="34.00" loaded="49" inserted="45" running="35" waiting="4" ended="10" arrived="10" collisions="0" teleports="0" halting="12" stopped="0" meanWaitingTime="2.02" meanTravelTime="23.50" meanSpeed="6.56" meanSpeedRelative="0.47" duration="1"/>
    <step time="35.00" loaded="50" inserted="48" running="38" waiting="2" ended="10" arrived="10" collisions="0" teleports="0" halting="14" stopped="0" meanWaitingTime="2.10" meanTravelTime="23.50" meanSpeed="6.43" meanSpeedRelative="0.46" duration="0"/>
    <step time="36.00" loaded="53" inserted="51" running="41" waiting="2" ended="10" arrived="10" collisions="0" teleports="0" halting="14" stopped="0" meanWaitingTime="2.08" meanTravelTime="23.50" meanSpeed="6.32" meanSpeedRelative="0.46" duration="1"/>
    <step time="37.00" loaded="53" inserted="51" running="41" waiting="2" ended="10" arrived="10" collisions="0" teleports="0" halting="11" stopped="0" meanWaitingTime="2.08" meanTravelTime="23.50" meanSpeed="6.62" meanSpeedRelative="0.48" duration="0"/>
    <step time="38.00" loaded="53" inserted="52" running="40" waiting="1" ended="12" arrived="12" collisions="0" teleports="0" halting="14" stopped="0" meanWaitingTime="2.13" meanTravelTime="23.75" meanSpeed="6.21" meanSpeedRelative="0.45" duration="1"/>
    <step time="39.00" loaded="54" inserted="52" running="38" waiting="2" ended="14" arrived="14" collisions="0" teleports="0" halting="14" stopped="0" meanWaitingTime="2.13" meanTravelTime="23.50" meanSpeed="5.74" meanSpeedRelative="0.41" duration="0"/>
    <step time="40.00" loaded="57" inserted="53" running="39" waiting="4" ended="14" arrived="14" collisions="0" teleports="0" halting="16" stopped="0" meanWaitingTime="2.09" meanTravelTime="23.50" meanSpeed="5.43" meanSpeedRelative="0.39" duration="1"/>
    <step time="41.00" loaded="58" inserted="54" running="40" waiting="4" ended="14" arrived="14" collisions="0" teleports="0" halting="15" stopped="0" meanWaitingTime="2.15" meanTravelTime="23.50" meanSpeed="5.19" meanSpeedRelative="0.37" duration="0"/>
    <step time="42.00" loaded="58" inserted="54" running="39" waiting="4" ended="15" arrived="15" collisions="0" teleports="0" halting="14" stopped="0" meanWaitingTime="2.15" meanTravelTime="23.67" meanSpeed="4.89" meanSpeedRelative="0.35" duration="1"/>
    <step time="43.00" loaded="60" inserted="57" running="41" waiting="3" ended="16" arrived="16" collisions="0" teleports="0" halting="18" stopped="0" meanWaitingTime="2.19" meanTravelTime="23.88" meanSpeed="4.30" meanSpeedRelative="0.31" duration="1"/>
    <step time="44.00" loaded="61" inserted="58" running="42" waiting="3" ended="16" arrived="16" collisions="0" teleports="0" halting="16" stopped="0" meanWaitingTime="2.22" meanTravelTime="23.88" meanSpeed="4.20" meanSpeedRelative="0.30" duration="0"/>
    <step time="45.00" loaded="63" inserted="58" running="42" waiting="5" ended="16" arrived="16" collisions="0" teleports="0" halting="16" stopped="0" meanWaitingTime="2.22" meanTravelTime="23.88" meanSpeed="4.16" meanSpeedRelative="0.30" duration="1"/>
    <step time="46.00" loaded="63" inserted="61" running="45" waiting="2" ended="16" arrived="16" collisions="0" teleports="0" halting="21" stopped="0" meanWaitingTime="2.26" meanTravelTime="23.88" meanSpeed="3.92" meanSpeedRelative="0.28" duration="1"/>
    <step time="47.00" loaded="63" inserted="61" running="44" waiting="2" ended="17" arrived="17" collisions="0" teleports="0" halting="19" stopped="0" meanWaitingTime="2.26" meanTravelTime="24.18" meanSpeed="3.93" meanSpeedRelative="0.28" duration="0"/>
    <step time="48.00" loaded="66" inserted="63" running="46" waiting="3" ended="17" arrived="17" collisions="0" teleports="0" halting="24" stopped="0" meanWaitingTime="2.29" meanTravelTime="24.18" meanSpeed="3.75" meanSpeedRelative="0.27" duration="1"/>
    <step time="49.00" loaded="66" inserted="64" running="45" waiting="2" ended="19" arrived="19" collisions="0" teleports="0" halting="24" stopped="0" meanWaitingTime="2.27" meanTravelTime="24.53" meanSpeed="3.74" meanSpeedRelative="0.27" duration="0"/>
    <step time="50.00" loaded="69" inserted="65" running="45" waiting="4" ended="20" arrived="20" collisions="0" teleports="0" halting="20" stopped="0" meanWaitingTime="2.23" meanTravelTime="24.70" meanSpeed="3.78" meanSpeedRelative="0.27" duration="2"/>
    <step time="51.00" loaded="69" inserted="66" running="45" waiting="3" ended="21" arrived="21" collisions="0" teleports="0" halting="18" stopped="0" meanWaitingTime="2.29" meanTravelTime="24.48" meanSpeed="3.51" meanSpeedRelative="0.25" duration="0"/>
    <step time="52.00" loaded="72" inserted="67" running="46" waiting="5" ended="21" arrived="21" collisions="0" teleports="0" halting="15" stopped="0" meanWaitingTime="2.27" meanTravelTime="24.48" meanSpeed="3.72" meanSpeedRelative="0.27" duration="1"/>
    <step time="53.00" loaded="72" inserted="68" running="47" waiting="4" ended="21" arrived="21" collisions="0" teleports="0" halting="14" stopped="0" meanWaitingTime="2.28" meanTravelTime="24.48" meanSpeed="3.97" meanSpeedRelative="0.29" duration="0"/>
    <step time="54.00" loaded="73" inserted="70" running="49" waiting="3" ended="21" arrived="21" collisions="0" teleports="0" halting="15" stopped="0" meanWaitingTime="2.34" meanTravelTime="24.48" meanSpeed="4.54" meanSpeedRelative="0.33" duration="1"/>
    <step time="55.00" loaded="73" inserted="71" running="50" waiting="2" ended="21" arrived="21" collisions="0" teleports="0" halting="14" stopped="0" meanWaitingTime="2.39" meanTravelTime="24.48" meanSpeed="5.13" meanSpeedRelative="0.37" duration="1"/>
    <step time="56.00" loaded="74" inserted="72" running="51" waiting="2" ended="21" arrived="21" collisions="0" teleports="0" halting="15" stopped="0" meanWaitingTime="2.36" meanTravelTime="24.48" meanSpeed="5.18" meanSpeedRelative="0.37" duration="1"/>
    <step time="57.00" loaded="75" inserted="72" running="50" waiting="3" ended="22" arrived="22" collisions="0" teleports="0" halting="17" stopped="0" meanWaitingTime="2.36" meanTravelTime="25.73" meanSpeed="5.34" meanSpeedRelative="0.38" duration="1"/>
    <step time="58.00" loaded="75" inserted="73" running="51" waiting="2" ended="22" arrived="22" collisions="0" teleports="0" halting="19" stopped="0" meanWaitingTime="2.42" meanTravelTime="25.73" meanSpeed="5.44" meanSpeedRelative="0.39" duration="1"/>
    <step time="59.00" loaded="76" inserted="73" running="50" waiting="3" ended="23" arrived="23" collisions="0" teleports="0" halting="21" stopped="0" meanWaitingTime="2.42" meanTravelTime="26.61" meanSpeed="5.56" meanSpeedRelative="0.40" duration="1"/>
    <step time="60.00" loaded="85" inserted="77" running="53" waiting="8" ended="24" arrived="24" collisions="0" teleports="0" halting="26" stopped="0" meanWaitingTime="2.39" meanTravelTime="26.33" meanSpeed="4.98" meanSpeedRelative="0.36" duration="2"/>
    <step time="61.00" loaded="86" inserted="77" running="52" waiting="9" ended="25" arrived="25" collisions="0" teleports="0" halting="23" stopped="0" meanWaitingTime="2.39" meanTravelTime="26.76" meanSpeed="4.87" meanSpeedRelative="0.35" duration="0"/>
    <step time="62.00" loaded="86" inserted="78" running="53" waiting="8" ended="25" arrived="25" collisions="0" teleports="0" halting="26" stopped="0" meanWaitingTime="2.44" meanTravelTime="26.76" meanSpeed="4.91" meanSpeedRelative="0.35" duration="1"/>
    <step time="63.00" loaded="87" inserted="81" running="56" waiting="6" ended="25" arrived="25" collisions="0" teleports="0" halting="30" stopped="0" meanWaitingTime="2.46" meanTravelTime="26.76" meanSpeed="4.66" meanSpeedRelative="0.34" duration="0"/>
    <step time="64.00" loaded="88" inserted="82" running="56" waiting="6" ended="26" arrived="26" collisions="0" teleports="0" halting="28" stopped="0" meanWaitingTime="2.48" meanTravelTime="28.19" meanSpeed="4.48" meanSpeedRelative="0.32" duration="1"/>
    <step time="65.00" loaded="88" inserted="83" running="56" waiting="5" ended="27" arrived="27" collisions="0" teleports="0" halting="28" stopped="0" meanWaitingTime="2.53" meanTravelTime="29.11" meanSpeed="4.41" meanSpeedRelative="0.32" duration="0"/>
    <step time="66.00" loaded="89" inserted="85" running="58" waiting="4" ended="27" arrived="27" collisions="0" teleports="0" halting="30" stopped="0" meanWaitingTime="2.56" meanTravelTime="29.11" meanSpeed="4.57" meanSpeedRelative="0.33" duration="1"/>
    <step time="67.00" loaded="89" inserted="86" running="56" waiting="3" ended="30" arrived="30" collisions="0" teleports="0" halting="26" stopped="0" meanWaitingTime="2.62" meanTravelTime="32.00" meanSpeed="4.50" meanSpeedRelative="0.32" duration="1"/>
    <step time="68.00" loaded="91" inserted="87" running="56" waiting="4" ended="31" arrived="31" collisions="0" teleports="0" halting="26" stopped="0" meanWaitingTime="2.59" meanTravelTime="33.06" meanSpeed="4.48" meanSpeedRelative="0.32" duration="0"/>
    <step time="69.00" loaded="92" inserted="88" running="56" waiting="4" ended="32" arrived="32" collisions="0" teleports="0" halting="28" stopped="0" meanWaitingTime="2.57" meanTravelTime="33.72" meanSpeed="4.39" meanSpeedRelative="0.32" duration="1"/>
    <step time="70.00" loaded="95" inserted="90" running="56" waiting="5" ended="34" arrived="34" collisions="0" teleports="0" halting="29" stopped="0" meanWaitingTime="2.62" meanTravelTime="34.03" meanSpeed="4.40" meanSpeedRelative="0.32" duration="1"/>
    <step time="71.00" loaded="95" inserted="91" running="55" waiting="4" ended="36" arrived="36" collisions="0" teleports="0" halting="28" stopped="0" meanWaitingTime="2.68" meanTravelTime="34.42" meanSpeed="4.19" meanSpeedRelative="0.30" duration="0"/>
    <step time="72.00" loaded="98" inserted="92" running="56" waiting="6" ended="36" arrived="36" collisions="0" teleports="0" halting="29" stopped="0" meanWaitingTime="2.65" meanTravelTime="34.42" meanSpeed="4.22" meanSpeedRelative="0.30" duration="1"/>
    <step time="73.00" loaded="98" inserted="94" running="58" waiting="4" ended="36" arrived="36" collisions="0" teleports="0" halting="32" stopped="0" meanWaitingTime="2.71" meanTravelTime="34.42" meanSpeed="4.08" meanSpeedRelative="0.29" duration="0"/>
    <step time="74.00" loaded="98" inserted="95" running="58" waiting="3" ended="37" arrived="37" collisions="0" teleports="0" halting="32" stopped="0" meanWaitingTime="2.71" meanTravelTime="34.32" meanSpeed="3.94" meanSpeedRelative="0.28" duration="1"/>
    <step time="75.00" loaded="100" inserted="96" running="57" waiting="4" ended="39" arrived="39" collisions="0" teleports="0" halting="33" stopped="0" meanWaitingTime="2.68" meanTravelTime="34.00" meanSpeed="3.52" meanSpeedRelative="0.25" duration="0"/>
    <step time="76.00" loaded="101" inserted="98" running="59" waiting="3" ended="39" arrived="39" collisions="0" teleports="0" halting="33" stopped="0" meanWaitingTime="2.71" meanTravelTime="34.00" meanSpeed="3.60" meanSpeedRelative="0.26" duration="0"/>
    <step time="77.00" loaded="102" inserted="98" running="59" waiting="4" ended="39" arrived="39" collisions="0" teleports="0" halting="34" stopped="0" meanWaitingTime="2.71" meanTravelTime="34.00" meanSpeed="3.74" meanSpeedRelative="0.27" duration="1"/>
    <step time="78.00" loaded="103" inserted="100" running="60" waiting="3" ended="40" arrived="40" collisions="0" teleports="0" halting="37" stopped="0" meanWaitingTime="2.76" meanTravelTime="33.80" meanSpeed="3.46" meanSpeedRelative="0.25" duration="0"/>
    <step time="79.00" loaded="104" inserted="100" running="60" waiting="4" ended="40" arrived="40" collisions="0" teleports="0" halting="35" stopped="0" meanWaitingTime="2.76" meanTravelTime="33.80" meanSpeed="3.53" meanSpeedRelative="0.25" duration="1"/>
    <step time="80.00" loaded="107" inserted="101" running="60" waiting="6" ended="41" arrived="41" collisions="0" teleports="0" halting="36" stopped="0" meanWaitingTime="2.73" meanTravelTime="34.78" meanSpeed="3.15" meanSpeedRelative="0.23" duration="0"/>
    <step time="81.00" loaded="108" inserted="102" running="60" waiting="6" ended="42" arrived="42" collisions="0" teleports="0" halting="37" stopped="0" meanWaitingTime="2.79" meanTravelTime="35.67" meanSpeed="3.02" meanSpeedRelative="0.22" duration="0"/>
    <step time="82.00" loaded="108" inserted="102" running="60" waiting="6" ended="42" arrived="42" collisions="0" teleports="0" halting="37" stopped="0" meanWaitingTime="2.79" meanTravelTime="35.67" meanSpeed="3.21" meanSpeedRelative="0.23" duration="0"/>
    <step time="83.00" loaded="108" inserted="104" running="60" waiting="4" ended="44" arrived="44" collisions="0" teleports="0" halting="41" stopped="0" meanWaitingTime="2.86" meanTravelTime="36.05" meanSpeed="2.69" meanSpeedRelative="0.19" duration="1"/>
    <step time="84.00" loaded="111" inserted="106" running="62" waiting="5" ended="44" arrived="44" collisions="0" teleports="0" halting="42" stopped="0" meanWaitingTime="2.84" meanTravelTime="36.05" meanSpeed="2.66" meanSpeedRelative="0.19" duration="1"/>
    <step time="85.00" loaded="111" inserted="106" running="61" waiting="5" ended="45" arrived="45" collisions="0" teleports="0" halting="42" stopped="0" meanWaitingTime="2.84" meanTravelTime="36.36" meanSpeed="2.64" meanSpeedRelative="0.19" duration="0"/>
    <step time="86.00" loaded="113" inserted="109" running="63" waiting="4" ended="46" arrived="46" collisions="0" teleports="0" halting="46" stopped="0" meanWaitingTime="2.88" meanTravelTime="36.07" meanSpeed="2.44" meanSpeedRelative="0.18" duration="2"/>
    <step time="87.00" loaded="113" inserted="109" running="62" waiting="4" ended="47" arrived="47" collisions="0" teleports="0" halting="42" stopped="0" meanWaitingTime="2.88" meanTravelTime="35.87" meanSpeed="2.49" meanSpeedRelative="0.18" duration="0"/>
    <step time="88.00" loaded="115" inserted="111" running="62" waiting="4" ended="49" arrived="49" collisions="0" teleports="0" halting="44" stopped="0" meanWaitingTime="2.92" meanTravelTime="36.06" meanSpeed="2.04" meanSpeedRelative="0.15" duration="0"/>
    <step time="89.00" loaded="115" inserted="111" running="62" waiting="4" ended="49" arrived="49" collisions="0" teleports="0" halting="40" stopped="0" meanWaitingTime="2.92" meanTravelTime="36.06" meanSpeed="2.14" meanSpeedRelative="0.15" duration="1"/>
    <step time="90.00" loaded="122" inserted="114" running="64" waiting="8" ended="50" arrived="50" collisions="0" teleports="0" halting="41" stopped="0" meanWaitingTime="2.84" meanTravelTime="36.48" meanSpeed="2.04" meanSpeedRelative="0.15" duration="1"/>
    <step time="91.00" loaded="122" inserted="115" running="64" waiting="7" ended="51" arrived="51" collisions="0" teleports="0" halting="33" stopped="0" meanWaitingTime="2.90" meanTravelTime="36.24" meanSpeed="2.08" meanSpeedRelative="0.15" duration="1"/>
    <step time="92.00" loaded="123" inserted="115" running="64" waiting="8" ended="51" arrived="51" collisions="0" teleports="0" halting="27" stopped="0" meanWaitingTime="2.90" meanTravelTime="36.24" meanSpeed="2.50" meanSpeedRelative="0.18" duration="1"/>
    <step time="93.00" loaded="124" inserted="118" running="67" waiting="6" ended="51" arrived="51" collisions="0" teleports="0" halting="28" stopped="0" meanWaitingTime="2.97" meanTravelTime="36.24" meanSpeed="2.96" meanSpeedRelative="0.21" duration="1"/>
    <step time="94.00" loaded="124" inserted="119" running="68" waiting="5" ended="51" arrived="51" collisions="0" teleports="0" halting="23" stopped="0" meanWaitingTime="2.96" meanTravelTime="36.24" meanSpeed="3.56" meanSpeedRelative="0.26" duration="0"/>
    <step time="95.00" loaded="126" inserted="119" running="67" waiting="7" ended="52" arrived="52" collisions="0" teleports="0" halting="19" stopped="0" meanWaitingTime="2.96" meanTravelTime="36.04" meanSpeed="4.13" meanSpeedRelative="0.30" duration="1"/>
    <step time="96.00" loaded="128" inserted="123" running="70" waiting="5" ended="53" arrived="53" collisions="0" teleports="0" halting="20" stopped="0" meanWaitingTime="2.97" meanTravelTime="35.75" meanSpeed="4.37" meanSpeedRelative="0.31" duration="2"/>
    <step time="97.00" loaded="129" inserted="123" running="69" waiting="6" ended="54" arrived="54" collisions="0" teleports="0" halting="15" stopped="0" meanWaitingTime="2.97" meanTravelTime="35.56" meanSpeed="4.91" meanSpeedRelative="0.35" duration="1"/>
    <step time="98.00" loaded="129" inserted="123" running="69" waiting="6" ended="54" arrived="54" collisions="0" teleports="0" halting="13" stopped="0" meanWaitingTime="2.97" meanTravelTime="35.56" meanSpeed="5.50" meanSpeedRelative="0.40" duration="1"/>
    <step time="99.00" loaded="130" inserted="124" running="69" waiting="6" ended="55" arrived="55" collisions="0" teleports="0" halting="13" stopped="0" meanWaitingTime="3.04" meanTravelTime="35.80" meanSpeed="6.08" meanSpeedRelative="0.44" duration="2"/>
    <step time="100.00" loaded="133" inserted="125" running="70" waiting="8" ended="55" arrived="55" collisions="0" teleports="0" halting="13" stopped="0" meanWaitingTime="3.02" meanTravelTime="35.80" meanSpeed="6.57" meanSpeedRelative="0.47" duration="1"/>
    <step time="101.00" loaded="133" inserted="125" running="70" waiting="8" ended="55" arrived="55" collisions="0" teleports="0" halting="12" stopped="0" meanWaitingTime="3.02" meanTravelTime="35.80" meanSpeed="7.13" meanSpeedRelative="0.51" duration="1"/>
    <step time="102.00" loaded="134" inserted="126" running="71" waiting="8" ended="55" arrived="55" collisions="0" teleports="0" halting="13" stopped="0" meanWaitingTime="3.09" meanTravelTime="35.80" meanSpeed="7.39" meanSpeedRelative="0.53" duration="1"/>
    <step time="103.00" loaded="135" inserted="128" running="70" waiting="7" ended="58" arrived="58" collisions="0" teleports="0" halting="14" stopped="0" meanWaitingTime="3.07" meanTravelTime="36.67" meanSpeed="7.34" meanSpeedRelative="0.53" duration="1"/>
    <step time="104.00" loaded="137" inserted="129" running="70" waiting="8" ended="59" arrived="59" collisions="0" teleports="0" halting="14" stopped="0" meanWaitingTime="3.08" meanTravelTime="37.36" meanSpeed="7.73" meanSpeedRelative="0.56" duration="1"/>
    <step time="105.00" loaded="138" inserted="130" running="68" waiting="8" ended="62" arrived="62" collisions="0" teleports="0" halting="14" stopped="0" meanWaitingTime="3.17" meanTravelTime="39.27" meanSpeed="7.59" meanSpeedRelative="0.55" duration="1"/>
    <step time="106.00" loaded="139" inserted="131" running="68" waiting="8" ended="63" arrived="63" collisions="0" teleports="0" halting="14" stopped="0" meanWaitingTime="3.15" meanTravelTime="39.78" meanSpeed="7.56" meanSpeedRelative="0.54" duration="1"/>
    <step time="107.00" loaded="139" inserted="132" running="66" waiting="7" ended="66" arrived="66" collisions="0" teleports="0" halting="14" stopped="0" meanWaitingTime="3.15" meanTravelTime="40.68" meanSpeed="7.66" meanSpeedRelative="0.55" duration="1"/>
    <step time="108.00" loaded="142" inserted="135" running="69" waiting="7" ended="66" arrived="66" collisions="0" teleports="0" halting="16" stopped="0" meanWaitingTime="3.20" meanTravelTime="40.68" meanSpeed="7.68" meanSpeedRelative="0.55" duration="0"/>
    <step time="109.00" loaded="142" inserted="135" running="68" waiting="7" ended="67" arrived="67" collisions="0" teleports="0" halting="13" stopped="0" meanWaitingTime="3.20" meanTravelTime="41.18" meanSpeed="7.89" meanSpeedRelative="0.57" duration="0"/>
    <step time="110.00" loaded="144" inserted="136" running="66" waiting="8" ended="70" arrived="70" collisions="0" teleports="0" halting="16" stopped="0" meanWaitingTime="3.18" meanTravelTime="41.79" meanSpeed="7.70" meanSpeedRelative="0.55" duration="2"/>
    <step time="111.00" loaded="145" inserted="137" running="64" waiting="8" ended="73" arrived="73" collisions="0" teleports="0" halting="15" stopped="0" meanWaitingTime="3.28" meanTravelTime="42.89" meanSpeed="7.68" meanSpeedRelative="0.55" duration="1"/>
    <step time="112.00" loaded="147" inserted="139" running="64" waiting="8" ended="75" arrived="75" collisions="0" teleports="0" halting="17" stopped="0" meanWaitingTime="3.35" meanTravelTime="42.79" meanSpeed="7.44" meanSpeedRelative="0.54" duration="1"/>
    <step time="113.00" loaded="148" inserted="140" running="63" waiting="8" ended="77" arrived="77" collisions="0" teleports="0" halting="17" stopped="0" meanWaitingTime="3.35" meanTravelTime="43.32" meanSpeed="7.29" meanSpeedRelative="0.52" duration="2"/>